 Variables="x""y""rho""p""u""v"
 Zone t = Solution
 I =            9
 j =            9
 Datapacking = BLOCK
 Varlocation=(3=CELLCENTERED, 4=CELLCENTERED, 5=CELLCENTERED,6=CELLCENTERED)
  0.000000000000000E+00  0.125000000000000E+00  0.250000000000000E+00  0.375000000000000E+00
  0.500000000000000E+00  0.625000000000000E+00  0.750000000000000E+00  0.875000000000000E+00
  0.100000000000000E+01  0.000000000000000E+00  0.125000000000000E+00  0.250000000000000E+00
  0.375000000000000E+00  0.500000000000000E+00  0.625000000000000E+00  0.750000000000000E+00
  0.875000000000000E+00  0.100000000000000E+01  0.000000000000000E+00  0.125000000000000E+00
  0.250000000000000E+00  0.375000000000000E+00  0.500000000000000E+00  0.625000000000000E+00
  0.750000000000000E+00  0.875000000000000E+00  0.100000000000000E+01  0.000000000000000E+00
  0.125000000000000E+00  0.250000000000000E+00  0.375000000000000E+00  0.500000000000000E+00
  0.625000000000000E+00  0.750000000000000E+00  0.875000000000000E+00  0.100000000000000E+01
  0.000000000000000E+00  0.125000000000000E+00  0.250000000000000E+00  0.375000000000000E+00
  0.500000000000000E+00  0.625000000000000E+00  0.750000000000000E+00  0.875000000000000E+00
  0.100000000000000E+01  0.000000000000000E+00  0.125000000000000E+00  0.250000000000000E+00
  0.375000000000000E+00  0.500000000000000E+00  0.625000000000000E+00  0.750000000000000E+00
  0.875000000000000E+00  0.100000000000000E+01  0.000000000000000E+00  0.125000000000000E+00
  0.250000000000000E+00  0.375000000000000E+00  0.500000000000000E+00  0.625000000000000E+00
  0.750000000000000E+00  0.875000000000000E+00  0.100000000000000E+01  0.000000000000000E+00
  0.125000000000000E+00  0.250000000000000E+00  0.375000000000000E+00  0.500000000000000E+00
  0.625000000000000E+00  0.750000000000000E+00  0.875000000000000E+00  0.100000000000000E+01
  0.000000000000000E+00  0.125000000000000E+00  0.250000000000000E+00  0.375000000000000E+00
  0.500000000000000E+00  0.625000000000000E+00  0.750000000000000E+00  0.875000000000000E+00
  0.100000000000000E+01
  0.000000000000000E+00  0.000000000000000E+00  0.000000000000000E+00  0.000000000000000E+00
  0.000000000000000E+00  0.000000000000000E+00  0.000000000000000E+00  0.000000000000000E+00
  0.000000000000000E+00  0.125000000000000E+00  0.125000000000000E+00  0.125000000000000E+00
  0.125000000000000E+00  0.125000000000000E+00  0.125000000000000E+00  0.125000000000000E+00
  0.125000000000000E+00  0.125000000000000E+00  0.250000000000000E+00  0.250000000000000E+00
  0.250000000000000E+00  0.250000000000000E+00  0.250000000000000E+00  0.250000000000000E+00
  0.250000000000000E+00  0.250000000000000E+00  0.250000000000000E+00  0.375000000000000E+00
  0.375000000000000E+00  0.375000000000000E+00  0.375000000000000E+00  0.375000000000000E+00
  0.375000000000000E+00  0.375000000000000E+00  0.375000000000000E+00  0.375000000000000E+00
  0.500000000000000E+00  0.500000000000000E+00  0.500000000000000E+00  0.500000000000000E+00
  0.500000000000000E+00  0.500000000000000E+00  0.500000000000000E+00  0.500000000000000E+00
  0.500000000000000E+00  0.625000000000000E+00  0.625000000000000E+00  0.625000000000000E+00
  0.625000000000000E+00  0.625000000000000E+00  0.625000000000000E+00  0.625000000000000E+00
  0.625000000000000E+00  0.625000000000000E+00  0.750000000000000E+00  0.750000000000000E+00
  0.750000000000000E+00  0.750000000000000E+00  0.750000000000000E+00  0.750000000000000E+00
  0.750000000000000E+00  0.750000000000000E+00  0.750000000000000E+00  0.875000000000000E+00
  0.875000000000000E+00  0.875000000000000E+00  0.875000000000000E+00  0.875000000000000E+00
  0.875000000000000E+00  0.875000000000000E+00  0.875000000000000E+00  0.875000000000000E+00
  0.100000000000000E+01  0.100000000000000E+01  0.100000000000000E+01  0.100000000000000E+01
  0.100000000000000E+01  0.100000000000000E+01  0.100000000000000E+01  0.100000000000000E+01
  0.100000000000000E+01
  0.128370771002775E+01  0.136111531047783E+01  0.141139724712715E+01  0.143981296814355E+01
  0.145244216251755E+01  0.145487750807868E+01  0.145154813107722E+01  0.144559044420287E+01
  0.119842498977313E+01  0.123431709485216E+01  0.127598060992525E+01  0.131680052357399E+01
  0.135243257224798E+01  0.138082887294827E+01  0.140173096764140E+01  0.141599171575359E+01
  0.118360087300414E+01  0.120047681745926E+01  0.122619758544760E+01  0.125783308830146E+01
  0.129164275261048E+01  0.132417467587553E+01  0.135294884180389E+01  0.137668285185422E+01
  0.117878443158188E+01  0.118602156901742E+01  0.119964724805195E+01  0.121978543956252E+01
  0.124521220605349E+01  0.127377830807066E+01  0.130301896410718E+01  0.133075144605053E+01
  0.117719055063633E+01  0.118010101741116E+01  0.118660205935405E+01  0.119779067640035E+01
  0.121406117507959E+01  0.123496258928248E+01  0.125928925145545E+01  0.128539374677012E+01
  0.117666722285457E+01  0.117779275472578E+01  0.118069250640757E+01  0.118636436238869E+01
  0.119565892029271E+01  0.120904929200414E+01  0.122647475127769E+01  0.124733741281132E+01
  0.117649600862835E+01  0.117692055730557E+01  0.117815783918430E+01  0.118086047049213E+01
  0.118576716281523E+01  0.119356367806420E+01  0.120472821882356E+01  0.121942501558101E+01
  0.117643991888207E+01  0.117659623813238E+01  0.117710306740845E+01  0.117832035745068E+01
  0.118073072920982E+01  0.118488612369417E+01  0.119132270839523E+01  0.120047597650933E+01
  0.114948855323028E+06  0.125234796775157E+06  0.132163357585648E+06  0.136213833304090E+06
  0.138105131939118E+06  0.138563847961659E+06  0.138190934379813E+06  0.137421863503205E+06
  0.103868622406592E+06  0.108179992775650E+06  0.113333847249917E+06  0.118497895577408E+06
  0.123087277671729E+06  0.126803136131907E+06  0.129582972451213E+06  0.131517366692009E+06
  0.102173033515521E+06  0.104204222879829E+06  0.107360653812429E+06  0.111311051982132E+06
  0.115594662474264E+06  0.119764736868780E+06  0.123487549941751E+06  0.126584456531449E+06
  0.101602508815579E+06  0.102460957601039E+06  0.104100826681010E+06  0.106562435138162E+06
  0.109718065869461E+06  0.113312381922678E+06  0.117035226976789E+06  0.120609645755404E+06
  0.101415628184238E+06  0.101758208650936E+06  0.102530782109775E+06  0.103875464540209E+06
  0.105855748266547E+06  0.108433152664200E+06  0.111470937831750E+06  0.114782849625822E+06
  0.101354564052035E+06  0.101486530261655E+06  0.101828769887935E+06  0.102503262656386E+06
  0.103618696077988E+06  0.105242672208647E+06  0.107380135166246E+06  0.109985368585975E+06
  0.101334646572145E+06  0.101384330454558E+06  0.101529898688355E+06  0.101849601149190E+06
  0.102433832544361E+06  0.103369593455500E+06  0.104722241318619E+06  0.106536226618066E+06
  0.101328157065267E+06  0.101346585660732E+06  0.101406734121508E+06  0.101552108688317E+06
  0.101841986900246E+06  0.102345865047745E+06  0.103134035994284E+06  0.104277937240377E+06
  0.676125134395179E+03  0.665428491360262E+03  0.658752901493974E+03  0.655120437231926E+03
  0.653614803961317E+03  0.653453217741141E+03  0.654032177504962E+03  0.654928828251950E+03
  0.688749992686879E+03  0.683541431898585E+03  0.677449245619054E+03  0.671504832722292E+03
  0.666370332898316E+03  0.662336744471502E+03  0.659419870965118E+03  0.657474735686107E+03
  0.690860494928319E+03  0.688490832370167E+03  0.684841899715538E+03  0.680328834214718E+03
  0.675503958585081E+03  0.670878804002596E+03  0.666813536812340E+03  0.663482133888948E+03
  0.691533000087733E+03  0.690537516160012E+03  0.688649629705622E+03  0.685837237343753E+03
  0.682264128525863E+03  0.678237085477621E+03  0.674114963616784E+03  0.670205221791462E+03
  0.691751717926190E+03  0.691355150874167E+03  0.690467182181175E+03  0.688931427514335E+03
  0.686684098787216E+03  0.683779739408166E+03  0.680384418734381E+03  0.676715759095759E+03
  0.691823026139820E+03  0.691670275703691E+03  0.691276943688975E+03  0.690506573569904E+03
  0.689239800081609E+03  0.687405805941090E+03  0.685006473510018E+03  0.682100830281679E+03
  0.691846275615130E+03  0.691788799465295E+03  0.691621653857666E+03  0.691257143445353E+03
  0.690595510213091E+03  0.689542851396075E+03  0.688031875504967E+03  0.686020011034211E+03
  0.691853939818591E+03  0.691833327603194E+03  0.691767078160904E+03  0.691609528370925E+03
  0.691300675455210E+03  0.690773392024080E+03  0.689964338985129E+03  0.688812952401704E+03
 -0.533737979456737E+02 -0.433050700395369E+02 -0.328674880881356E+02 -0.234529025045255E+02
 -0.156826319514095E+02 -0.969475971025533E+01 -0.535461762066934E+01 -0.240002201644747E+01
 -0.545106985537338E+02 -0.451737572750534E+02 -0.348556871506982E+02 -0.251812893150304E+02
 -0.170243394940803E+02 -0.106727345366137E+02 -0.604805903291251E+01 -0.289309497416456E+01
 -0.585225720707134E+02 -0.539118010430556E+02 -0.470871013982368E+02 -0.389870580435526E+02
 -0.306573023996748E+02 -0.229366396127206E+02 -0.163319389090690E+02 -0.110443558904908E+02
 -0.598666406893096E+02 -0.578685222775090E+02 -0.541669268747845E+02 -0.488142377072097E+02
 -0.422387097568485E+02 -0.350795477329195E+02 -0.279885036683227E+02 -0.214882216539575E+02
 -0.603122322050806E+02 -0.595055651400483E+02 -0.577215262312036E+02 -0.546912461326175E+02
 -0.503619023702928E+02 -0.449246758612434E+02 -0.387644307934602E+02 -0.323594989378592E+02
 -0.604585875027966E+02 -0.601462474862581E+02 -0.593473804049567E+02 -0.577985846122570E+02
 -0.552900818807977E+02 -0.517321020921729E+02 -0.471939523457677E+02 -0.418990695004969E+02
 -0.605065061451071E+02 -0.603889851320500E+02 -0.600488094293193E+02 -0.593113401693841E+02
 -0.579845948040478E+02 -0.559007070599543E+02 -0.529605551067254E+02 -0.491639012140891E+02
 -0.605222516325132E+02 -0.604796049162751E+02 -0.603422345156175E+02 -0.600144288966659E+02
 -0.593696927851066E+02 -0.582664746513999E+02 -0.565725569884416E+02 -0.541862186396456E+02
