 Variables="x""y""z""rho""p""u""v""w""S_Mass""S_xmtm""S_ymtm""S_zmtm""S_ergy"
 zone t="block1"
 i =          105
 j =           33
 k =            2
 Datapacking = BLOCK
 Varlocation=(4=CELLCENTERED, 5=CELLCENTERED,6=CELLCENTERED,7=CELLCENTERED,8=CELLCENTERED,9=CELLCENTERED,10=CELLCENTERED,11=CELLCENTERED,12=CELLCENTERED,13=CELLCENTERED)
  0.000000000000000E+00  0.978780211880800E-03  0.231976970098910E-02  0.415268167853360E-02
  0.664991140365600E-02  0.100373420864340E-01  0.146050658077000E-01  0.207152031362060E-01
  0.288016013801100E-01  0.393532477319240E-01  0.528706051409240E-01  0.697847083210950E-01
  0.903371199965480E-01  0.114438392221930E+00  0.141550913453100E+00  0.170661404728890E+00
  0.200393334031110E+00  0.229249507188800E+00  0.255901753902440E+00  0.279415100812910E+00
  0.299334615468980E+00  0.315637886524200E+00  0.328609079122540E+00  0.338698804378510E+00
  0.346410214900970E+00  0.354670554399490E+00  0.363637506961820E+00  0.373326539993290E+00
  0.383743584156040E+00  0.394883334636690E+00  0.406727641820910E+00  0.419244378805160E+00
  0.432386577129360E+00  0.446092337369920E+00  0.460285186767580E+00  0.474875241518020E+00
  0.489761322736740E+00  0.504833281040190E+00  0.519975423812870E+00  0.535069823265080E+00
  0.550000011920930E+00  0.564843773841860E+00  0.579687476158140E+00  0.594531238079070E+00
  0.609375000000000E+00  0.624218761920930E+00  0.639062523841860E+00  0.653906226158140E+00
  0.668749988079070E+00  0.683593750000000E+00  0.698437511920930E+00  0.713281273841860E+00
  0.728124976158140E+00  0.742968738079070E+00  0.757812500000000E+00  0.772656261920930E+00
  0.787500023841860E+00  0.802343726158140E+00  0.817187488079070E+00  0.832031250000000E+00
  0.846875011920930E+00  0.861718773841860E+00  0.876562476158140E+00  0.891406238079070E+00
  0.906250000000000E+00  0.921093761920930E+00  0.935937523841860E+00  0.950781226158140E+00
  0.965624988079070E+00  0.980468750000000E+00  0.995312511920930E+00  0.101015627384190E+01
  0.102499997615810E+01  0.103984379768370E+01  0.105468750000000E+01  0.106953120231630E+01
  0.108437502384190E+01  0.109921872615810E+01  0.111406254768370E+01  0.112890625000000E+01
  0.114374995231630E+01  0.115859377384190E+01  0.117343747615810E+01  0.118828129768370E+01
  0.120312500000000E+01  0.121796870231630E+01  0.123281252384190E+01  0.124765622615810E+01
  0.126250004768370E+01  0.127734375000000E+01  0.129218745231630E+01  0.130703127384190E+01
  0.132187497615810E+01  0.133671879768370E+01  0.135156250000000E+01  0.136640620231630E+01
  0.138125002384190E+01  0.139609372615810E+01  0.141093754768370E+01  0.142578125000000E+01
  0.144062495231630E+01  0.145546877384190E+01  0.147031247615810E+01  0.148515629768370E+01
  0.150000000000000E+01 -0.600627739913760E-03  0.273997487965970E-03  0.177069520577790E-02
  0.365637103095650E-02  0.616230210289360E-02  0.953845493495460E-02  0.140818469226360E-01
  0.201555080711840E-01  0.281917396932840E-01  0.386767238378520E-01  0.521074086427690E-01
  0.689112469553950E-01  0.893272608518600E-01  0.113266438245770E+00  0.140196591615680E+00
  0.169115751981740E+00  0.198662832379340E+00  0.227356433868410E+00  0.253880560398100E+00
  0.277306884527210E+00  0.297182142734530E+00  0.313483029603960E+00  0.326495140790940E+00
  0.336690634489060E+00  0.345040023326870E+00  0.353952616453170E+00  0.363032817840580E+00
  0.372797161340710E+00  0.383277416229250E+00  0.394473552703860E+00  0.406368970870970E+00
  0.418931514024730E+00  0.432113707065580E+00  0.445852667093280E+00  0.460070699453350E+00
  0.474676579236980E+00  0.489567250013350E+00  0.504630148410800E+00  0.519744813442230E+00
  0.534783899784090E+00  0.549635112285610E+00  0.564468383789060E+00  0.579308927059170E+00
  0.594131231307980E+00  0.608947813510890E+00  0.623763561248780E+00  0.638580501079560E+00
  0.653399109840390E+00  0.668219864368440E+00  0.683042705059050E+00  0.697867691516880E+00
  0.712694764137270E+00  0.727523922920230E+00  0.742355048656460E+00  0.757188081741330E+00
  0.772022962570190E+00  0.786859631538390E+00  0.801697969436650E+00  0.816537857055660E+00
  0.831379354000090E+00  0.846222341060640E+00  0.861066699028020E+00  0.875912427902220E+00
  0.890759408473970E+00  0.905607700347900E+00  0.920457124710080E+00  0.935307681560520E+00
  0.950159311294560E+00  0.965012013912200E+00  0.979865670204160E+00  0.994720220565800E+00
  0.100957572460170E+01  0.102443206310270E+01  0.103928911685940E+01  0.105414700508120E+01
  0.106900560855870E+01  0.108386492729190E+01  0.109872484207150E+01  0.111358535289760E+01
  0.112844634056090E+01  0.114330792427060E+01  0.115816986560820E+01  0.117303228378300E+01
  0.118789505958560E+01  0.120275807380680E+01  0.121762144565580E+01  0.123248493671420E+01
  0.124734866619110E+01  0.126221251487730E+01  0.127707648277280E+01  0.129194045066830E+01
  0.130680429935460E+01  0.132166802883150E+01  0.133653163909910E+01  0.135139489173890E+01
  0.136625802516940E+01  0.138112056255340E+01  0.139598274230960E+01  0.141084432601930E+01
  0.142570531368260E+01  0.144056534767150E+01  0.145542418956760E+01  0.147028136253360E+01
  0.148513638973240E+01  0.150000000000000E+01 -0.120527821127330E-02 -0.571094453334810E-03
  0.100442057009790E-02  0.297117093577980E-02  0.550245633348820E-02  0.887811183929440E-02
  0.134064331650730E-01  0.194533336907630E-01  0.274505130946640E-01  0.378817021846770E-01
  0.512401275336740E-01  0.679489076137540E-01  0.882436335086820E-01  0.112035565078260E+00
  0.138799563050270E+00  0.167548686265950E+00  0.196942314505580E+00  0.225519061088560E+00
  0.251976996660230E+00  0.275393843650820E+00  0.295315802097320E+00  0.311716526746750E+00
  0.324883043766020E+00  0.335312902927400E+00  0.343886643648150E+00  0.352701038122180E+00
  0.361911177635190E+00  0.371780008077620E+00  0.382356792688370E+00  0.393645137548450E+00
  0.405628174543380E+00  0.418272286653520E+00  0.431527554988860E+00  0.445327997207640E+00
  0.459592372179030E+00  0.474225372076030E+00  0.489119410514830E+00  0.504156768321990E+00
  0.519211709499360E+00  0.534157395362850E+00  0.548919260501860E+00  0.563669502735140E+00
  0.578436195850370E+00  0.593184709548950E+00  0.607927858829500E+00  0.622673571109770E+00
  0.637425243854520E+00  0.652184009552000E+00  0.666950404644010E+00  0.681724429130550E+00
  0.696506023406980E+00  0.711294889450070E+00  0.726090848445890E+00  0.740893602371220E+00
  0.755702912807460E+00  0.770518481731410E+00  0.785340070724490E+00  0.800167322158810E+00
  0.815000116825100E+00  0.829838097095490E+00  0.844681084156040E+00  0.859528779983520E+00
  0.874381065368650E+00  0.889237642288210E+00  0.904098331928250E+00  0.918962955474850E+00
  0.933831274509430E+00  0.948703169822690E+00  0.963578462600710E+00  0.978456914424900E+00
  0.993338465690610E+00  0.100822281837460E+01  0.102311003208160E+01  0.103799974918370E+01
  0.105289185047150E+01  0.106778633594510E+01  0.108268284797670E+01  0.109758150577550E+01
  0.111248183250430E+01  0.112738394737240E+01  0.114228761196140E+01  0.115719258785250E+01
  0.117209887504580E+01  0.118700635433200E+01  0.120191466808320E+01  0.121682369709010E+01
  0.123173344135280E+01  0.124664366245270E+01  0.126155412197110E+01  0.127646470069890E+01
  0.129137527942660E+01  0.130628550052640E+01  0.132119536399840E+01  0.133610451221470E+01
  0.135101282596590E+01  0.136591994762420E+01  0.138082575798030E+01  0.139573001861570E+01
  0.141063237190250E+01  0.142553234100340E+01  0.144042956829070E+01  0.145532345771790E+01
  0.147021317481990E+01  0.148509991168980E+01  0.150000000000000E+01 -0.181800127029420E-02
 -0.131561153102670E-02  0.199546921066940E-03  0.223073037341240E-02  0.479348609223960E-02
  0.817304942756890E-02  0.126893352717160E-01  0.187120381742720E-01  0.266726557165380E-01
  0.370525345206260E-01  0.503410212695600E-01  0.669565871357920E-01  0.871310234069820E-01
  0.110775627195840E+00  0.137372389435770E+00  0.165950000286100E+00  0.195189327001570E+00
  0.223650276660920E+00  0.250046104192730E+00  0.273461133241650E+00  0.293441146612170E+00
  0.309956133365630E+00  0.323292136192320E+00  0.333953827619550E+00  0.342679351568220E+00
  0.351375162601470E+00  0.360676169395450E+00  0.370643109083180E+00  0.381317347288130E+00
  0.392701953649520E+00  0.404778599739070E+00  0.417511075735090E+00  0.430846244096760E+00
  0.444714248180390E+00  0.459029287099840E+00  0.473691076040270E+00  0.488586634397510E+00
  0.503593027591710E+00  0.518581807613370E+00  0.533434927463530E+00  0.548112094402310E+00
  0.562761723995210E+00  0.577413320541380E+00  0.592061042785640E+00  0.606712460517880E+00
  0.621373593807220E+00  0.636047542095180E+00  0.650735616683960E+00  0.665438115596770E+00
  0.680155038833620E+00  0.694885969161990E+00  0.709630548954010E+00  0.724388301372530E+00
  0.739158689975740E+00  0.753941237926480E+00  0.768735349178310E+00  0.783540606498720E+00
  0.798356413841250E+00  0.813182294368740E+00  0.828017771244050E+00  0.842862486839290E+00
  0.857715845108030E+00  0.872577488422390E+00  0.887447059154510E+00  0.902324140071870E+00
  0.917208313941960E+00  0.932099282741550E+00  0.946996688842770E+00  0.961900174617770E+00
  0.976809382438660E+00  0.991724133491520E+00  0.100664401054380E+01  0.102156877517700E+01
  0.103649806976320E+01  0.105143165588380E+01  0.106636929512020E+01  0.108131074905400E+01
  0.109625554084780E+01  0.111120355129240E+01  0.112615454196930E+01  0.114110827445980E+01
  0.115606427192690E+01  0.117102241516110E+01  0.118598234653470E+01  0.120094382762910E+01
  0.121590662002560E+01  0.123087036609650E+01  0.124583470821380E+01  0.126079952716830E+01
  0.127576434612270E+01  0.129072892665860E+01  0.130569279193880E+01  0.132065582275390E+01
  0.133561742305760E+01  0.135057747364040E+01  0.136553525924680E+01  0.138049054145810E+01
  0.139544284343720E+01  0.141039168834690E+01  0.142533636093140E+01  0.144027614593510E+01
  0.145521032810210E+01  0.147013831138610E+01  0.148506259918210E+01  0.150000000000000E+01
 -0.244290055707100E-02 -0.200266251340510E-02 -0.584473193157460E-03  0.146953447256240E-02
  0.406187307089570E-02  0.744675472378730E-02  0.119516663253310E-01  0.179502032697200E-01
  0.258738342672590E-01  0.362015217542650E-01  0.494185797870160E-01  0.659385845065120E-01
  0.859892293810840E-01  0.109481550753120E+00  0.135904550552370E+00  0.164302766323090E+00
  0.193379238247870E+00  0.221716344356540E+00  0.248043790459630E+00  0.271453648805620E+00
  0.291491776704790E+00  0.308124005794530E+00  0.321631640195850E+00  0.332506388425830E+00
  0.341348946094510E+00  0.349990218877790E+00  0.359359025955200E+00  0.369420826435090E+00
  0.380195230245590E+00  0.391680985689160E+00  0.403856903314590E+00  0.416683703660960E+00
  0.430104464292530E+00  0.444044947624210E+00  0.458414405584340E+00  0.473107129335400E+00
  0.488004595041280E+00  0.502979159355160E+00  0.517901182174680E+00  0.532661199569700E+00
  0.547248423099520E+00  0.561796188354490E+00  0.576319873332980E+00  0.590852379798890E+00
  0.605401098728180E+00  0.619969367980960E+00  0.634559035301210E+00  0.649170815944670E+00
  0.663804709911350E+00  0.678460419178010E+00  0.693137407302860E+00  0.707834899425510E+00
  0.722552299499510E+00  0.737288653850560E+00  0.752043247222900E+00  0.766815304756160E+00
  0.781603991985320E+00  0.796408593654630E+00  0.811228275299070E+00  0.826062321662900E+00
  0.840910077095030E+00  0.855770826339720E+00  0.870643973350520E+00  0.885528802871700E+00
  0.900424778461460E+00  0.915331363677980E+00  0.930247962474820E+00  0.945173978805540E+00
  0.960109055042270E+00  0.975052595138550E+00  0.990004122257230E+00  0.100496315956120E+01
  0.101992940902710E+01  0.103490221500400E+01  0.104988121986390E+01  0.106486606597900E+01
  0.107985627651210E+01  0.109485149383540E+01  0.110985124111180E+01  0.112485516071320E+01
  0.113986289501190E+01  0.115487384796140E+01  0.116988778114320E+01  0.118490421772000E+01
  0.119992268085480E+01  0.121494281291960E+01  0.122996425628660E+01  0.124498641490940E+01
  0.126000893116000E+01  0.127503132820130E+01  0.129005300998690E+01  0.130507373809810E+01
  0.132009279727940E+01  0.133510971069340E+01  0.135012400150300E+01  0.136513495445250E+01
  0.138014209270480E+01  0.139514458179470E+01  0.141014194488530E+01  0.142513322830200E+01
  0.144011759758000E+01  0.145509409904480E+01  0.147006249427800E+01  0.148502540588380E+01
  0.150000000000000E+01 -0.308416155166920E-02 -0.267542665824290E-02 -0.134230428375300E-02
  0.697149895131590E-03  0.331093603745100E-02  0.670096604153510E-02  0.111944256350400E-01
  0.171681419014930E-01  0.250535812228920E-01  0.353272818028930E-01  0.484703890979290E-01
  0.648913383483890E-01  0.848134309053420E-01  0.108147196471690E+00  0.134388506412510E+00
  0.162597939372060E+00  0.191501349210740E+00  0.219704687595370E+00  0.245955437421800E+00
  0.269354522228240E+00  0.289448350667950E+00  0.306197762489320E+00  0.319874346256260E+00
  0.330940663814540E+00  0.339888721704480E+00  0.348531931638720E+00  0.357962161302570E+00
  0.368117481470110E+00  0.378995478153230E+00  0.390587717294690E+00  0.402869045734410E+00
  0.415796399116520E+00  0.429308593273160E+00  0.443326652050020E+00  0.457754462957380E+00
  0.472480654716490E+00  0.487381190061570E+00  0.502323985099790E+00  0.517178297042850E+00
  0.531841278076170E+00  0.546331286430360E+00  0.560776710510250E+00  0.575169920921330E+00
  0.589579820632930E+00  0.604018330574040E+00  0.618487536907200E+00  0.632987737655640E+00
  0.647518873214720E+00  0.662080526351930E+00  0.676672041416170E+00  0.691292464733120E+00
  0.705940842628480E+00  0.720616221427920E+00  0.735317409038540E+00  0.750043332576750E+00
  0.764792919158940E+00  0.779565095901490E+00  0.794358730316160E+00  0.809172868728640E+00
  0.824006438255310E+00  0.838858485221860E+00  0.853728115558620E+00  0.868614435195920E+00
  0.883516490459440E+00  0.898433566093440E+00  0.913364827632900E+00  0.928309500217440E+00
  0.943266868591310E+00  0.958236217498780E+00  0.973216831684110E+00  0.988208115100860E+00
  0.100320947170260E+01  0.101822006702420E+01  0.103323960304260E+01  0.104826724529270E+01
  0.106330239772800E+01  0.107834470272060E+01  0.109339344501500E+01  0.110844814777370E+01
  0.112350809574130E+01  0.113857281208040E+01  0.115364181995390E+01  0.116871452331540E+01
  0.118379032611850E+01  0.119886863231660E+01  0.121394896507260E+01  0.122903060913090E+01
  0.124411308765410E+01  0.125919580459590E+01  0.127427804470060E+01  0.128935921192170E+01
  0.130443871021270E+01  0.131951582431790E+01  0.133458995819090E+01  0.134966015815730E+01
  0.136472594738010E+01  0.137978625297550E+01  0.139484047889710E+01  0.140988755226140E+01
  0.142492663860320E+01  0.143995666503910E+01  0.145497667789460E+01  0.146998631954190E+01
  0.148498845100400E+01  0.150000000000000E+01 -0.374607928097250E-02 -0.335518061183390E-02
 -0.208663940429690E-02 -0.840815264382400E-04  0.253905146382750E-02  0.593260722234850E-02
  0.104141188785430E-01  0.163620933890340E-01  0.242078490555290E-01  0.344254262745380E-01
  0.474916435778140E-01  0.638095736503600E-01  0.835978537797930E-01  0.106766283512120E+00
  0.132817521691320E+00  0.160828396677970E+00  0.189548254013060E+00  0.217607632279400E+00
  0.243773117661480E+00  0.267155468463900E+00  0.287301927804950E+00  0.304166942834850E+00
  0.318007230758670E+00  0.329246431589130E+00  0.338299214839940E+00  0.346984177827840E+00
  0.356481283903120E+00  0.366731613874440E+00  0.377717286348340E+00  0.389421761035920E+00
  0.401814937591550E+00  0.414849370718000E+00  0.428459227085110E+00  0.442560195922850E+00
  0.457050532102580E+00  0.471812963485720E+00  0.486717879772190E+00  0.501628816127780E+00
  0.516413331031800E+00  0.530973851680760E+00  0.545359849929810E+00  0.559700965881350E+00
  0.573963105678560E+00  0.588246703147890E+00  0.602569818496700E+00  0.616934716701510E+00
  0.631340980529790E+00  0.645787656307220E+00  0.660273730754850E+00  0.674798250198360E+00
  0.689359843730930E+00  0.703957259655000E+00  0.718589186668400E+00  0.733254134655000E+00
  0.747950732707980E+00  0.762677490711210E+00  0.777433156967160E+00  0.792216181755070E+00
  0.807025372982030E+00  0.821859359741210E+00  0.836716949939730E+00  0.851596832275390E+00
  0.866497874259950E+00  0.881419062614440E+00  0.896359205245970E+00  0.911317288875580E+00
  0.926292359828950E+00  0.941283464431760E+00  0.956289649009700E+00  0.971310079097750E+00
  0.986343860626220E+00  0.100139021873470E+01  0.101644825935360E+01  0.103151726722720E+01
  0.104659640789030E+01  0.106168496608730E+01  0.107678222656250E+01  0.109188735485080E+01
  0.110699987411500E+01  0.112211871147160E+01  0.113724339008330E+01  0.115237319469450E+01
  0.116750741004940E+01  0.118264520168300E+01  0.119778597354890E+01  0.121292889118190E+01
  0.122807323932650E+01  0.124321830272670E+01  0.125836336612700E+01  0.127350759506230E+01
  0.128865027427670E+01  0.130379045009610E+01  0.131892728805540E+01  0.133406007289890E+01
  0.134918785095210E+01  0.136430966854100E+01  0.137942469120030E+01  0.139453160762790E+01
  0.140962958335880E+01  0.142471742630000E+01  0.143979406356810E+01  0.145485830307010E+01
  0.146990978717800E+01  0.148495137691500E+01  0.150000000000000E+01 -0.443308660760520E-02
 -0.405336869880560E-02 -0.283228815533220E-02 -0.875756668392570E-03  0.174358859658240E-02
  0.513755809515710E-02  0.960619933903220E-02  0.155273107811810E-01  0.233317017555240E-01
  0.334907956421380E-01  0.464769117534160E-01  0.626875311136250E-01  0.823364034295080E-01
  0.105332374572750E+00  0.131184920668600E+00  0.158987358212470E+00  0.187513202428820E+00
  0.215418636798860E+00  0.241490483284000E+00  0.264850199222560E+00  0.285045951604840E+00
  0.302024066448210E+00  0.316021442413330E+00  0.327419459819790E+00  0.336580514907840E+00
  0.345334708690640E+00  0.354910254478450E+00  0.365260243415830E+00  0.376358747482300E+00
  0.388181716203690E+00  0.400693625211720E+00  0.413842052221300E+00  0.427555978298190E+00
  0.441745460033420E+00  0.456302702426910E+00  0.471104234457020E+00  0.486014783382420E+00
  0.500893235206600E+00  0.515604972839360E+00  0.530057370662690E+00  0.544333457946780E+00
  0.558566927909850E+00  0.572697281837460E+00  0.586852192878720E+00  0.601056277751920E+00
  0.615312933921810E+00  0.629621267318730E+00  0.643979966640470E+00  0.658387541770940E+00
  0.672842442989350E+00  0.687343120574950E+00  0.701887845993040E+00  0.716474890708920E+00
  0.731102645397190E+00  0.745769262313840E+00  0.760473012924190E+00  0.775212109088900E+00
  0.789984941482540E+00  0.804789781570430E+00  0.819625020027160E+00  0.834489166736600E+00
  0.849380671978000E+00  0.864298105239870E+00  0.879240036010740E+00  0.894205212593080E+00
  0.909192264080050E+00  0.924199938774110E+00  0.939227163791660E+00  0.954272687435150E+00
  0.969335436820980E+00  0.984414339065550E+00  0.999508380889890E+00  0.101461660861970E+01
  0.102973783016200E+01  0.104487133026120E+01  0.106001603603360E+01  0.107517111301420E+01
  0.109033560752870E+01  0.110550856590270E+01  0.112068927288060E+01  0.113587665557860E+01
  0.115106987953190E+01  0.116626811027530E+01  0.118147051334380E+01  0.119667601585390E+01
  0.121188402175900E+01  0.122709333896640E+01  0.124230325222020E+01  0.125751280784610E+01
  0.127272105216980E+01  0.128792691230770E+01  0.130312955379490E+01  0.131832790374760E+01
  0.133352100849150E+01  0.134870767593380E+01  0.136388695240020E+01  0.137905752658840E+01
  0.139421844482420E+01  0.140936827659610E+01  0.142450582981110E+01  0.143962979316710E+01
  0.145473897457120E+01  0.146983301639560E+01  0.148491430282590E+01  0.150000000000000E+01
 -0.514978542923930E-02 -0.477766152471300E-02 -0.359182059764860E-02 -0.168226636014880E-02
  0.921524595469240E-03  0.431145075708630E-02  0.876580085605380E-02  0.146587155759330E-01
  0.224198810756210E-01  0.325179211795330E-01  0.454204939305780E-01  0.615192428231240E-01
  0.810227990150450E-01  0.103838950395580E+00  0.129483997821810E+00  0.157068133354190E+00
  0.185389682650570E+00  0.213131502270700E+00  0.239101707935330E+00  0.262433201074600E+00
  0.282674759626390E+00  0.299762755632400E+00  0.313910365104680E+00  0.325457423925400E+00
  0.334732085466380E+00  0.343575417995450E+00  0.353242963552470E+00  0.363700151443480E+00
  0.374917984008790E+00  0.386866450309750E+00  0.399504452943800E+00  0.412774175405500E+00
  0.426598966121670E+00  0.440882772207260E+00  0.455511331558230E+00  0.470354825258260E+00
  0.485271930694580E+00  0.500116705894470E+00  0.514752089977260E+00  0.529090821743010E+00
  0.543251812458040E+00  0.557373881340030E+00  0.571370959281920E+00  0.585395336151120E+00
  0.599477708339690E+00  0.613622903823850E+00  0.627830147743230E+00  0.642097890377040E+00
  0.656424224376680E+00  0.670807182788850E+00  0.685244917869570E+00  0.699735343456270E+00
  0.714276432991030E+00  0.728866040706630E+00  0.743502140045170E+00  0.758182525634770E+00
  0.772905230522160E+00  0.787668108940120E+00  0.802469253540040E+00  0.817306637763980E+00
  0.832178473472600E+00  0.847082912921910E+00  0.862018167972560E+00  0.876982569694520E+00
  0.891974568367000E+00  0.906992554664610E+00  0.922035038471220E+00  0.937100589275360E+00
  0.952187776565550E+00  0.967295348644260E+00  0.982421934604640E+00  0.997566282749180E+00
  0.101272726058960E+01  0.102790355682370E+01  0.104309403896330E+01  0.105829763412480E+01
  0.107351326942440E+01  0.108873975276950E+01  0.110397601127620E+01  0.111922097206120E+01
  0.113447368144990E+01  0.114973294734950E+01  0.116499781608580E+01  0.118026721477510E+01
  0.119554007053380E+01  0.121081531047820E+01  0.122609186172490E+01  0.124136877059940E+01
  0.125664472579960E+01  0.127191877365110E+01  0.128718984127040E+01  0.130245661735530E+01
  0.131771802902220E+01  0.133297288417820E+01  0.134821987152100E+01  0.136345779895780E+01
  0.137868535518650E+01  0.139390110969540E+01  0.140910375118260E+01  0.142429184913640E+01
  0.143946397304530E+01  0.145461881160740E+01  0.146975564956670E+01  0.148487710952760E+01
  0.150000000000000E+01 -0.590097578242420E-02 -0.553432153537870E-02 -0.437536928802730E-02
 -0.250976299867030E-02  0.693579859216700E-04  0.344980577938260E-02  0.788787566125390E-02
  0.137510150671010E-01  0.214669127017260E-01  0.315011404454710E-01  0.443164855241780E-01
  0.602985471487050E-01  0.796506255865100E-01  0.102279365062710E+00  0.127708032727240E+00
  0.155064076185230E+00  0.183171331882480E+00  0.210740327835080E+00  0.236601367592810E+00
  0.259899348020550E+00  0.280183285474780E+00  0.297377526760100E+00  0.311668843030930E+00
  0.323359102010730E+00  0.332753360271450E+00  0.341701298952100E+00  0.351474642753600E+00
  0.362048536539080E+00  0.373393654823300E+00  0.385475486516950E+00  0.398247510194780E+00
  0.411646306514740E+00  0.425589025020600E+00  0.439973115921020E+00  0.454677492380140E+00
  0.469565540552140E+00  0.484489798545840E+00  0.499299198389050E+00  0.513854205608370E+00
  0.528073966503140E+00  0.542115271091460E+00  0.556121945381160E+00  0.569983780384060E+00
  0.583875834941860E+00  0.597834289073940E+00  0.611865520477290E+00  0.625969111919400E+00
  0.640143334865570E+00  0.654386103153230E+00  0.668695211410520E+00  0.683068335056300E+00
  0.697503089904790E+00  0.711997091770170E+00  0.726547896862030E+00  0.741153001785280E+00
  0.755809903144840E+00  0.770516276359560E+00  0.785269618034360E+00  0.800067603588100E+00
  0.814907968044280E+00  0.829788506031040E+00  0.844707071781160E+00  0.859661638736720E+00
  0.874650120735170E+00  0.889670729637150E+00  0.904721558094020E+00  0.919800817966460E+00
  0.934906840324400E+00  0.950037956237790E+00  0.965192615985870E+00  0.980369269847870E+00
  0.995566427707670E+00  0.101078259944920E+01  0.102601647377010E+01  0.104126667976380E+01
  0.105653178691860E+01  0.107181048393250E+01  0.108710157871250E+01  0.110240364074710E+01
  0.111771559715270E+01  0.113303601741790E+01  0.114836382865910E+01  0.116369771957400E+01
  0.117903649806980E+01  0.119437885284420E+01  0.120972371101380E+01  0.122506952285770E+01
  0.124041533470150E+01  0.125575983524320E+01  0.127110159397130E+01  0.128643941879270E+01
  0.130177199840550E+01  0.131709802150730E+01  0.133241605758670E+01  0.134772467613220E+01
  0.136302244663240E+01  0.137830793857570E+01  0.139357972145080E+01  0.140883612632750E+01
  0.142407560348510E+01  0.143929660320280E+01  0.145449769496920E+01  0.146967792510990E+01
  0.148483979702000E+01  0.150000000000000E+01 -0.669168820604680E-02 -0.632914248853920E-02
 -0.519138481467960E-02 -0.336531270295380E-02 -0.817052379716190E-03  0.254800170660020E-02
  0.696720276027920E-02  0.127987088635560E-01  0.204671043902640E-01  0.304345674812790E-01
  0.431587882339950E-01  0.590191073715690E-01  0.782133191823960E-01  0.100646898150440E+00
  0.125850275158880E+00  0.152968600392340E+00  0.180851981043820E+00  0.208239465951920E+00
  0.233984440565110E+00  0.257244110107420E+00  0.277567088603970E+00  0.294863879680630E+00
  0.309293389320370E+00  0.321123808622360E+00  0.330644220113750E+00  0.339709818363190E+00
  0.349602252244950E+00  0.360303610563280E+00  0.371785312891010E+00  0.384009301662450E+00
  0.396923959255220E+00  0.410459935665130E+00  0.424527972936630E+00  0.439018428325650E+00
  0.453803002834320E+00  0.468737959861760E+00  0.483669400215150E+00  0.498441070318220E+00
  0.512911379337310E+00  0.527007162570950E+00  0.540924787521360E+00  0.554812014102940E+00
  0.568536400794980E+00  0.582294225692750E+00  0.596126914024350E+00  0.610042095184330E+00
  0.624039947986600E+00  0.638118684291840E+00  0.652276098728180E+00  0.666509687900540E+00
  0.680816829204560E+00  0.695194840431210E+00  0.709640979766850E+00  0.724152326583860E+00
  0.738726139068600E+00  0.753359556198120E+00  0.768049716949460E+00  0.782793939113620E+00
  0.797589421272280E+00  0.812433600425720E+00  0.827323853969570E+00  0.842257738113400E+00
  0.857232928276060E+00  0.872246980667110E+00  0.887297809123990E+00  0.902383267879490E+00
  0.917501211166380E+00  0.932649731636050E+00  0.947826862335210E+00  0.963030815124510E+00
  0.978259742259980E+00  0.993512034416200E+00  0.100878584384920E+01  0.102407968044280E+01
  0.103939187526700E+01  0.105472087860110E+01  0.107006514072420E+01  0.108542323112490E+01
  0.110079360008240E+01  0.111617481708530E+01  0.113156545162200E+01  0.114696419239040E+01
  0.116236937046050E+01  0.117777967453000E+01  0.119319379329680E+01  0.120861005783080E+01
  0.122402739524840E+01  0.123944401741030E+01  0.125485873222350E+01  0.127026998996730E+01
  0.128567636013030E+01  0.130107629299160E+01  0.131646823883060E+01  0.133185076713560E+01
  0.134722232818600E+01  0.136258125305180E+01  0.137792575359340E+01  0.139325451850890E+01
  0.140856552124020E+01  0.142385709285740E+01  0.143912768363950E+01  0.145437550544740E+01
  0.146959972381590E+01  0.148480236530300E+01  0.150000000000000E+01 -0.752721959725020E-02
 -0.716785714030270E-02 -0.604735501110550E-02 -0.425635650753970E-02 -0.174257974140350E-02
  0.160119414795190E-02  0.599835999310020E-02  0.117960572242740E-01  0.194145161658530E-01
  0.293120704591270E-01  0.419410802423950E-01  0.576743967831130E-01  0.767041817307470E-01
  0.989347547292710E-01  0.123903982341290E+00  0.150775253772740E+00  0.178425654768940E+00
  0.205623671412470E+00  0.231246441602710E+00  0.254463583230970E+00  0.274822592735290E+00
  0.292218446731570E+00  0.306781917810440E+00  0.318751901388170E+00  0.328405350446700E+00
  0.337600290775300E+00  0.347624599933620E+00  0.358465045690540E+00  0.370093643665310E+00
  0.382469505071640E+00  0.395536065101620E+00  0.409217894077300E+00  0.423418760299680E+00
  0.438021659851070E+00  0.452890604734420E+00  0.467874377965930E+00  0.482812374830250E+00
  0.497543394565580E+00  0.511924326419830E+00  0.525891363620760E+00  0.539681613445280E+00
  0.553445637226100E+00  0.567030072212220E+00  0.580651819705960E+00  0.594357013702390E+00
  0.608154594898220E+00  0.622045099735260E+00  0.636026859283450E+00  0.650097489356990E+00
  0.664254367351530E+00  0.678494572639470E+00  0.692815124988560E+00  0.707212805747990E+00
  0.721684455871580E+00  0.736226856708530E+00  0.750836789608000E+00  0.765511095523830E+00
  0.780246615409850E+00  0.795040249824520E+00  0.809888958930970E+00  0.824789941310880E+00
  0.839740276336670E+00  0.854737281799320E+00  0.869778335094450E+00  0.884860873222350E+00
  0.899982511997220E+00  0.915140867233280E+00  0.930333673954010E+00  0.945558726787570E+00
  0.960813939571380E+00  0.976097285747530E+00  0.991406679153440E+00  0.100674033164980E+01
  0.102209627628330E+01  0.103747272491460E+01  0.105286788940430E+01  0.106827998161320E+01
  0.108370733261110E+01  0.109914815425870E+01  0.111460089683530E+01  0.113006401062010E+01
  0.114553558826450E+01  0.116101419925690E+01  0.117649817466740E+01  0.119198596477510E+01
  0.120747578144070E+01  0.122296631336210E+01  0.123845565319060E+01  0.125394237041470E+01
  0.126942467689510E+01  0.128490114212040E+01  0.130036985874180E+01  0.131582927703860E+01
  0.133127760887150E+01  0.134671318531040E+01  0.136213421821590E+01  0.137753891944890E+01
  0.139292550086980E+01  0.140829193592070E+01  0.142363643646240E+01  0.143895721435550E+01
  0.145425236225130E+01  0.146952092647550E+01  0.148476481437680E+01  0.150000000000000E+01
 -0.841316487640140E-02 -0.805633421987300E-02 -0.695031974464650E-02 -0.519045675173400E-02
 -0.271284184418620E-02  0.604212225880470E-03  0.497567700222130E-02  0.107370456680660E-01
  0.183029156178240E-01  0.281272474676370E-01  0.406567826867100E-01  0.562576726078990E-01